<?xml version="1.0" encoding="UTF-8"?>

<!-- generated on 2024-01-10 10:30:22 by Eclipse SUMO GUI Version 1.19.0
<configuration xmlns:xsi="http://www.w3.org/2001/XMLSchema-instance" xsi:noNamespaceSchemaLocation="http://sumo.dlr.de/xsd/sumoConfiguration.xsd">

    <input>
        <net-file value="E:\Hung-Sumo\2022-09\Platoon size\Max Pressure-Simpla-1\intersection\intelligent_traffic.net.xml"/>
        <route-files value="E:\Hung-Sumo\2022-09\Platoon size\Max Pressure-Simpla-1\intersection\intelligent_traffic.rou.xml"/>
        <additional-files value="E:\Hung-Sumo\2022-09\Platoon size\Max Pressure-Simpla-1\intersection\Area_Detector.xml"/>
    </input>

    <output>
        <emission-output value="E:\Hung-Sumo\2022-09\Platoon size\Max Pressure-Simpla-1\intersection\Output/Emission.xml"/>
        <fcd-output value="E:\Hung-Sumo\2022-09\Platoon size\Max Pressure-Simpla-1\intersection\Output/fcd.xml"/>
        <fcd-output.distance value="true"/>
        <fcd-output.acceleration value="true"/>
        <fcd-output.filter-edges.input-file value="E:\Hung-Sumo\2022-09\Platoon size\Max Pressure-Simpla-1\intersection\Edge.txt"/>
        <fcd-output.attributes value="all"/>
        <tripinfo-output value="E:\Hung-Sumo\2022-09\Platoon size\Max Pressure-Simpla-1\intersection\Output/tripinfo.xml"/>
        <statistic-output value="E:\Hung-Sumo\2022-09\Platoon size\Max Pressure-Simpla-1\intersection\Output/statistic.xml"/>
    </output>

    <time>
        <step-length value="0.1"/>
    </time>

    <processing>
        <collision.action value="warn"/>
    </processing>

    <report>
        <verbose value="False"/>
        <no-warnings value="true"/>
        <duration-log.statistics value="true"/>
        <no-step-log value="true"/>
    </report>

    <emissions>
        <device.emissions.period value="100"/>
    </emissions>

    <fcd_device>
        <device.fcd.period value="0.1"/>
    </fcd_device>

</configuration>
-->

<emission-export xmlns:xsi="http://www.w3.org/2001/XMLSchema-instance" xsi:noNamespaceSchemaLocation="http://sumo.dlr.de/xsd/emission_file.xsd">
</emission-export>
